<?xml version="1.0" encoding="UTF-8"?>

<!-- generated on 24/10/2018 14:04:47 by SUMO gui Version 0.32.0
<?xml version="1.0" encoding="UTF-8"?>

<configuration xmlns:xsi="http://www.w3.org/2001/XMLSchema-instance" xsi:noNamespaceSchemaLocation="http://sumo.dlr.de/xsd/sumoConfiguration.xsd">

    <input>
        <net-file value="datsm/netsm.net.xml"/>
        <route-files value="datsm/routes.rou.xml"/>
        <additional-files value="datsm/loops.det.xml,datsm/detecs.det.xml"/>
    </input>

    <time>
        <begin value="0"/>
        <end value="30"/>
    </time>

    <traci_server>
        <remote-port value="50134"/>
    </traci_server>

    <gui_only>
        <gui-settings-file value="datsm/gui-settings.cfg"/>
    </gui_only>

</configuration>
-->

<detector xmlns:xsi="http://www.w3.org/2001/XMLSchema-instance" xsi:noNamespaceSchemaLocation="http://sumo.dlr.de/xsd/det_e1_file.xsd">
    <interval begin="0.00" end="30.00" id="silva01" nVehContrib="0" flow="0.00" occupancy="0.00" speed="-1.00" length="-1.00" nVehEntered="0"/>
    <interval begin="0.00" end="30.00" id="silva02" nVehContrib="0" flow="0.00" occupancy="0.00" speed="-1.00" length="-1.00" nVehEntered="0"/>
    <interval begin="0.00" end="30.00" id="silva03" nVehContrib="0" flow="0.00" occupancy="0.00" speed="-1.00" length="-1.00" nVehEntered="0"/>
    <interval begin="0.00" end="30.00" id="venancio01" nVehContrib="1" flow="120.00" occupancy="0.00" speed="4000.00" length="4.00" nVehEntered="1"/>
    <interval begin="0.00" end="30.00" id="venancio02" nVehContrib="0" flow="0.00" occupancy="0.00" speed="-1.00" length="-1.00" nVehEntered="0"/>
    <interval begin="0.00" end="30.00" id="venancio03" nVehContrib="0" flow="0.00" occupancy="0.00" speed="-1.00" length="-1.00" nVehEntered="0"/>
    <interval begin="0.00" end="30.00" id="andradas03" nVehContrib="0" flow="0.00" occupancy="0.00" speed="-1.00" length="-1.00" nVehEntered="0"/>
    <interval begin="0.00" end="30.00" id="andradas04" nVehContrib="0" flow="0.00" occupancy="0.00" speed="-1.00" length="-1.00" nVehEntered="0"/>
    <interval begin="0.00" end="30.00" id="valandro01" nVehContrib="0" flow="0.00" occupancy="0.00" speed="-1.00" length="-1.00" nVehEntered="0"/>
    <interval begin="0.00" end="30.00" id="valandro02" nVehContrib="4" flow="480.00" occupancy="36.71" speed="3.71" length="4.00" nVehEntered="4"/>
    <interval begin="0.00" end="30.00" id="floriano01" nVehContrib="4" flow="480.00" occupancy="27.90" speed="4.19" length="4.00" nVehEntered="4"/>
    <interval begin="0.00" end="30.00" id="floriano02" nVehContrib="0" flow="0.00" occupancy="0.00" speed="-1.00" length="-1.00" nVehEntered="0"/>
    <interval begin="0.00" end="30.00" id="floriano03" nVehContrib="0" flow="0.00" occupancy="0.00" speed="-1.00" length="-1.00" nVehEntered="0"/>
    <interval begin="30.00" end="37.00" id="silva01" nVehContrib="3" flow="1542.86" occupancy="15.47" speed="14.80" length="4.00" nVehEntered="3"/>
    <interval begin="30.00" end="37.00" id="silva02" nVehContrib="0" flow="0.00" occupancy="0.00" speed="-1.00" length="-1.00" nVehEntered="0"/>
    <interval begin="30.00" end="37.00" id="silva03" nVehContrib="0" flow="0.00" occupancy="0.00" speed="-1.00" length="-1.00" nVehEntered="0"/>
    <interval begin="30.00" end="37.00" id="venancio01" nVehContrib="2" flow="1028.57" occupancy="32.29" speed="3.76" length="4.00" nVehEntered="2"/>
    <interval begin="30.00" end="37.00" id="venancio02" nVehContrib="0" flow="0.00" occupancy="0.00" speed="-1.00" length="-1.00" nVehEntered="0"/>
    <interval begin="30.00" end="37.00" id="venancio03" nVehContrib="0" flow="0.00" occupancy="0.00" speed="-1.00" length="-1.00" nVehEntered="0"/>
    <interval begin="30.00" end="37.00" id="andradas03" nVehContrib="0" flow="0.00" occupancy="0.00" speed="-1.00" length="-1.00" nVehEntered="0"/>
    <interval begin="30.00" end="37.00" id="andradas04" nVehContrib="0" flow="0.00" occupancy="0.00" speed="-1.00" length="-1.00" nVehEntered="0"/>
    <interval begin="30.00" end="37.00" id="valandro01" nVehContrib="0" flow="0.00" occupancy="0.00" speed="-1.00" length="-1.00" nVehEntered="0"/>
    <interval begin="30.00" end="37.00" id="valandro02" nVehContrib="0" flow="0.00" occupancy="93.50" speed="-1.00" length="-1.00" nVehEntered="1"/>
    <interval begin="30.00" end="37.00" id="floriano01" nVehContrib="0" flow="0.00" occupancy="71.57" speed="-1.00" length="-1.00" nVehEntered="1"/>
    <interval begin="30.00" end="37.00" id="floriano02" nVehContrib="0" flow="0.00" occupancy="1.28" speed="-1.00" length="-1.00" nVehEntered="1"/>
    <interval begin="30.00" end="37.00" id="floriano03" nVehContrib="0" flow="0.00" occupancy="0.00" speed="-1.00" length="-1.00" nVehEntered="0"/>
</detector>
