<?xml version="1.0" encoding="UTF-8"?>

<!-- generated on 22/10/2018 17:32:08 by SUMO gui Version 0.32.0
<?xml version="1.0" encoding="UTF-8"?>

<configuration xmlns:xsi="http://www.w3.org/2001/XMLSchema-instance" xsi:noNamespaceSchemaLocation="http://sumo.dlr.de/xsd/sumoConfiguration.xsd">

    <input>
        <net-file value="datsm/netsm.net.xml"/>
        <route-files value="datsm/routes.rou.xml"/>
        <additional-files value="datsm/loops.det.xml,datsm/detecs.det.xml"/>
    </input>

    <time>
        <begin value="0"/>
        <end value="30"/>
    </time>

    <traci_server>
        <remote-port value="53389"/>
    </traci_server>

    <gui_only>
        <gui-settings-file value="datsm/gui-settings.cfg"/>
    </gui_only>

</configuration>
-->

<detector xmlns:xsi="http://www.w3.org/2001/XMLSchema-instance" xsi:noNamespaceSchemaLocation="http://sumo.dlr.de/xsd/det_e1_file.xsd">
</detector>
