<?xml version="1.0" encoding="UTF-8"?>

<!-- generated on 15/10/2018 14:50:35 by SUMO gui Version 0.32.0
<?xml version="1.0" encoding="UTF-8"?>

<configuration xmlns:xsi="http://www.w3.org/2001/XMLSchema-instance" xsi:noNamespaceSchemaLocation="http://sumo.dlr.de/xsd/sumoConfiguration.xsd">

    <input>
        <net-file value="datsm/netsm.net.xml"/>
        <route-files value="datsm/routes.rou.xml"/>
        <additional-files value="datsm/loops.det.xml"/>
    </input>

    <time>
        <begin value="0"/>
        <end value="30"/>
    </time>

    <traci_server>
        <remote-port value="49901"/>
    </traci_server>

</configuration>
-->

<detector xmlns:xsi="http://www.w3.org/2001/XMLSchema-instance" xsi:noNamespaceSchemaLocation="http://sumo.dlr.de/xsd/det_e2_file.xsd">
   <interval begin="0.00" end="30.00" id="silva01" sampledSeconds="1.87" nVehEntered="1" nVehLeft="1" nVehSeen="1" meanSpeed="19.81" meanTimeLoss="0.20" meanOccupancy="0.19" maxOccupancy="5.71" meanMaxJamLengthInVehicles="0.00" meanMaxJamLengthInMeters="0.00" maxJamLengthInVehicles="0" maxJamLengthInMeters="0.00" jamLengthInVehiclesSum="0" jamLengthInMetersSum="0.00" meanHaltingDuration="0.00" maxHaltingDuration="0.00" haltingDurationSum="0.00" meanIntervalHaltingDuration="0.00" maxIntervalHaltingDuration="0.00" intervalHaltingDurationSum="0.00" startedHalts="0.00" meanVehicleNumber="0.07" maxVehicleNumber="1" />
   <interval begin="0.00" end="30.00" id="silva02" sampledSeconds="0.00" nVehEntered="0" nVehLeft="1" nVehSeen="0" meanSpeed="-1.00" meanTimeLoss="-1.00" meanOccupancy="0.00" maxOccupancy="0.00" meanMaxJamLengthInVehicles="0.00" meanMaxJamLengthInMeters="0.00" maxJamLengthInVehicles="0" maxJamLengthInMeters="0.00" jamLengthInVehiclesSum="0" jamLengthInMetersSum="0.00" meanHaltingDuration="0.00" maxHaltingDuration="0.00" haltingDurationSum="0.00" meanIntervalHaltingDuration="0.00" maxIntervalHaltingDuration="0.00" intervalHaltingDurationSum="0.00" startedHalts="0.00" meanVehicleNumber="0.00" maxVehicleNumber="0" />
   <interval begin="0.00" end="30.00" id="silva03" sampledSeconds="0.00" nVehEntered="0" nVehLeft="0" nVehSeen="0" meanSpeed="-1.00" meanTimeLoss="-1.00" meanOccupancy="0.00" maxOccupancy="0.00" meanMaxJamLengthInVehicles="0.00" meanMaxJamLengthInMeters="0.00" maxJamLengthInVehicles="0" maxJamLengthInMeters="0.00" jamLengthInVehiclesSum="0" jamLengthInMetersSum="0.00" meanHaltingDuration="0.00" maxHaltingDuration="0.00" haltingDurationSum="0.00" meanIntervalHaltingDuration="0.00" maxIntervalHaltingDuration="0.00" intervalHaltingDurationSum="0.00" startedHalts="0.00" meanVehicleNumber="0.00" maxVehicleNumber="0" />
   <interval begin="0.00" end="30.00" id="venancio01" sampledSeconds="5.73" nVehEntered="2" nVehLeft="1" nVehSeen="2" meanSpeed="11.71" meanTimeLoss="1.35" meanOccupancy="1.14" maxOccupancy="5.71" meanMaxJamLengthInVehicles="0.00" meanMaxJamLengthInMeters="0.00" maxJamLengthInVehicles="0" maxJamLengthInMeters="0.00" jamLengthInVehiclesSum="0" jamLengthInMetersSum="0.00" meanHaltingDuration="0.00" maxHaltingDuration="0.00" haltingDurationSum="0.00" meanIntervalHaltingDuration="0.00" maxIntervalHaltingDuration="0.00" intervalHaltingDurationSum="0.00" startedHalts="0.00" meanVehicleNumber="0.23" maxVehicleNumber="1" />
   <interval begin="0.00" end="30.00" id="venancio02" sampledSeconds="0.00" nVehEntered="0" nVehLeft="0" nVehSeen="0" meanSpeed="-1.00" meanTimeLoss="-1.00" meanOccupancy="0.00" maxOccupancy="0.00" meanMaxJamLengthInVehicles="0.00" meanMaxJamLengthInMeters="0.00" maxJamLengthInVehicles="0" maxJamLengthInMeters="0.00" jamLengthInVehiclesSum="0" jamLengthInMetersSum="0.00" meanHaltingDuration="0.00" maxHaltingDuration="0.00" haltingDurationSum="0.00" meanIntervalHaltingDuration="0.00" maxIntervalHaltingDuration="0.00" intervalHaltingDurationSum="0.00" startedHalts="0.00" meanVehicleNumber="0.00" maxVehicleNumber="0" />
   <interval begin="0.00" end="30.00" id="venancio03" sampledSeconds="0.00" nVehEntered="0" nVehLeft="0" nVehSeen="0" meanSpeed="-1.00" meanTimeLoss="-1.00" meanOccupancy="0.00" maxOccupancy="0.00" meanMaxJamLengthInVehicles="0.00" meanMaxJamLengthInMeters="0.00" maxJamLengthInVehicles="0" maxJamLengthInMeters="0.00" jamLengthInVehiclesSum="0" jamLengthInMetersSum="0.00" meanHaltingDuration="0.00" maxHaltingDuration="0.00" haltingDurationSum="0.00" meanIntervalHaltingDuration="0.00" maxIntervalHaltingDuration="0.00" intervalHaltingDurationSum="0.00" startedHalts="0.00" meanVehicleNumber="0.00" maxVehicleNumber="0" />
   <interval begin="0.00" end="30.00" id="andradas03" sampledSeconds="0.00" nVehEntered="0" nVehLeft="0" nVehSeen="0" meanSpeed="-1.00" meanTimeLoss="-1.00" meanOccupancy="0.00" maxOccupancy="0.00" meanMaxJamLengthInVehicles="0.00" meanMaxJamLengthInMeters="0.00" maxJamLengthInVehicles="0" maxJamLengthInMeters="0.00" jamLengthInVehiclesSum="0" jamLengthInMetersSum="0.00" meanHaltingDuration="0.00" maxHaltingDuration="0.00" haltingDurationSum="0.00" meanIntervalHaltingDuration="0.00" maxIntervalHaltingDuration="0.00" intervalHaltingDurationSum="0.00" startedHalts="0.00" meanVehicleNumber="0.00" maxVehicleNumber="0" />
   <interval begin="0.00" end="30.00" id="andradas04" sampledSeconds="0.00" nVehEntered="0" nVehLeft="0" nVehSeen="0" meanSpeed="-1.00" meanTimeLoss="-1.00" meanOccupancy="0.00" maxOccupancy="0.00" meanMaxJamLengthInVehicles="0.00" meanMaxJamLengthInMeters="0.00" maxJamLengthInVehicles="0" maxJamLengthInMeters="0.00" jamLengthInVehiclesSum="0" jamLengthInMetersSum="0.00" meanHaltingDuration="0.00" maxHaltingDuration="0.00" haltingDurationSum="0.00" meanIntervalHaltingDuration="0.00" maxIntervalHaltingDuration="0.00" intervalHaltingDurationSum="0.00" startedHalts="0.00" meanVehicleNumber="0.00" maxVehicleNumber="0" />
   <interval begin="0.00" end="30.00" id="valandro01" sampledSeconds="7.10" nVehEntered="1" nVehLeft="0" nVehSeen="1" meanSpeed="4.84" meanTimeLoss="4.62" meanOccupancy="1.46" maxOccupancy="5.71" meanMaxJamLengthInVehicles="0.10" meanMaxJamLengthInMeters="0.20" maxJamLengthInVehicles="1" maxJamLengthInMeters="2.00" jamLengthInVehiclesSum="3" jamLengthInMetersSum="6.00" meanHaltingDuration="4.00" maxHaltingDuration="4.00" haltingDurationSum="4.00" meanIntervalHaltingDuration="4.00" maxIntervalHaltingDuration="4.00" intervalHaltingDurationSum="4.00" startedHalts="1.00" meanVehicleNumber="0.27" maxVehicleNumber="1" />
   <interval begin="0.00" end="30.00" id="valandro02" sampledSeconds="3.97" nVehEntered="1" nVehLeft="1" nVehSeen="1" meanSpeed="9.33" meanTimeLoss="1.30" meanOccupancy="0.68" maxOccupancy="5.71" meanMaxJamLengthInVehicles="0.00" meanMaxJamLengthInMeters="0.00" maxJamLengthInVehicles="0" maxJamLengthInMeters="0.00" jamLengthInVehiclesSum="0" jamLengthInMetersSum="0.00" meanHaltingDuration="0.00" maxHaltingDuration="0.00" haltingDurationSum="0.00" meanIntervalHaltingDuration="0.00" maxIntervalHaltingDuration="0.00" intervalHaltingDurationSum="0.00" startedHalts="0.00" meanVehicleNumber="0.17" maxVehicleNumber="1" />
   <interval begin="0.00" end="30.00" id="floriano01" sampledSeconds="0.26" nVehEntered="1" nVehLeft="0" nVehSeen="1" meanSpeed="12.00" meanTimeLoss="0.04" meanOccupancy="0.19" maxOccupancy="5.71" meanMaxJamLengthInVehicles="0.00" meanMaxJamLengthInMeters="0.00" maxJamLengthInVehicles="0" maxJamLengthInMeters="0.00" jamLengthInVehiclesSum="0" jamLengthInMetersSum="0.00" meanHaltingDuration="0.00" maxHaltingDuration="0.00" haltingDurationSum="0.00" meanIntervalHaltingDuration="0.00" maxIntervalHaltingDuration="0.00" intervalHaltingDurationSum="0.00" startedHalts="0.00" meanVehicleNumber="0.03" maxVehicleNumber="1" />
   <interval begin="0.00" end="30.00" id="floriano02" sampledSeconds="0.00" nVehEntered="0" nVehLeft="0" nVehSeen="0" meanSpeed="-1.00" meanTimeLoss="-1.00" meanOccupancy="0.00" maxOccupancy="0.00" meanMaxJamLengthInVehicles="0.00" meanMaxJamLengthInMeters="0.00" maxJamLengthInVehicles="0" maxJamLengthInMeters="0.00" jamLengthInVehiclesSum="0" jamLengthInMetersSum="0.00" meanHaltingDuration="0.00" maxHaltingDuration="0.00" haltingDurationSum="0.00" meanIntervalHaltingDuration="0.00" maxIntervalHaltingDuration="0.00" intervalHaltingDurationSum="0.00" startedHalts="0.00" meanVehicleNumber="0.00" maxVehicleNumber="0" />
   <interval begin="0.00" end="30.00" id="floriano03" sampledSeconds="0.00" nVehEntered="0" nVehLeft="0" nVehSeen="0" meanSpeed="-1.00" meanTimeLoss="-1.00" meanOccupancy="0.00" maxOccupancy="0.00" meanMaxJamLengthInVehicles="0.00" meanMaxJamLengthInMeters="0.00" maxJamLengthInVehicles="0" maxJamLengthInMeters="0.00" jamLengthInVehiclesSum="0" jamLengthInMetersSum="0.00" meanHaltingDuration="0.00" maxHaltingDuration="0.00" haltingDurationSum="0.00" meanIntervalHaltingDuration="0.00" maxIntervalHaltingDuration="0.00" intervalHaltingDurationSum="0.00" startedHalts="0.00" meanVehicleNumber="0.00" maxVehicleNumber="0" />
   <interval begin="30.00" end="60.00" id="silva01" sampledSeconds="6.70" nVehEntered="2" nVehLeft="2" nVehSeen="2" meanSpeed="11.05" meanTimeLoss="1.68" meanOccupancy="0.95" maxOccupancy="5.71" meanMaxJamLengthInVehicles="0.00" meanMaxJamLengthInMeters="0.00" maxJamLengthInVehicles="0" maxJamLengthInMeters="0.00" jamLengthInVehiclesSum="0" jamLengthInMetersSum="0.00" meanHaltingDuration="0.00" maxHaltingDuration="0.00" haltingDurationSum="0.00" meanIntervalHaltingDuration="0.00" maxIntervalHaltingDuration="0.00" intervalHaltingDurationSum="0.00" startedHalts="0.00" meanVehicleNumber="0.23" maxVehicleNumber="1" />
   <interval begin="30.00" end="60.00" id="silva02" sampledSeconds="0.00" nVehEntered="0" nVehLeft="0" nVehSeen="-1" meanSpeed="-1.00" meanTimeLoss="-0.00" meanOccupancy="0.00" maxOccupancy="0.00" meanMaxJamLengthInVehicles="0.00" meanMaxJamLengthInMeters="0.00" maxJamLengthInVehicles="0" maxJamLengthInMeters="0.00" jamLengthInVehiclesSum="0" jamLengthInMetersSum="0.00" meanHaltingDuration="0.00" maxHaltingDuration="0.00" haltingDurationSum="0.00" meanIntervalHaltingDuration="0.00" maxIntervalHaltingDuration="0.00" intervalHaltingDurationSum="0.00" startedHalts="0.00" meanVehicleNumber="0.00" maxVehicleNumber="0" />
   <interval begin="30.00" end="60.00" id="silva03" sampledSeconds="0.00" nVehEntered="0" nVehLeft="0" nVehSeen="0" meanSpeed="-1.00" meanTimeLoss="-1.00" meanOccupancy="0.00" maxOccupancy="0.00" meanMaxJamLengthInVehicles="0.00" meanMaxJamLengthInMeters="0.00" maxJamLengthInVehicles="0" maxJamLengthInMeters="0.00" jamLengthInVehiclesSum="0" jamLengthInMetersSum="0.00" meanHaltingDuration="0.00" maxHaltingDuration="0.00" haltingDurationSum="0.00" meanIntervalHaltingDuration="0.00" maxIntervalHaltingDuration="0.00" intervalHaltingDurationSum="0.00" startedHalts="0.00" meanVehicleNumber="0.00" maxVehicleNumber="0" />
   <interval begin="30.00" end="60.00" id="venancio01" sampledSeconds="18.35" nVehEntered="5" nVehLeft="6" nVehSeen="6" meanSpeed="10.46" meanTimeLoss="1.62" meanOccupancy="3.26" maxOccupancy="11.43" meanMaxJamLengthInVehicles="0.07" meanMaxJamLengthInMeters="0.13" maxJamLengthInVehicles="1" maxJamLengthInMeters="2.00" jamLengthInVehiclesSum="2" jamLengthInMetersSum="4.00" meanHaltingDuration="3.00" maxHaltingDuration="3.00" haltingDurationSum="3.00" meanIntervalHaltingDuration="3.00" maxIntervalHaltingDuration="3.00" intervalHaltingDurationSum="3.00" startedHalts="1.00" meanVehicleNumber="0.80" maxVehicleNumber="2" />
   <interval begin="30.00" end="60.00" id="venancio02" sampledSeconds="48.89" nVehEntered="6" nVehLeft="0" nVehSeen="6" meanSpeed="2.86" meanTimeLoss="7.10" meanOccupancy="9.92" maxOccupancy="34.29" meanMaxJamLengthInVehicles="0.87" meanMaxJamLengthInMeters="3.32" maxJamLengthInVehicles="6" maxJamLengthInMeters="24.50" jamLengthInVehiclesSum="26" jamLengthInMetersSum="99.52" meanHaltingDuration="5.33" maxHaltingDuration="8.00" haltingDurationSum="32.00" meanIntervalHaltingDuration="5.33" maxIntervalHaltingDuration="8.00" intervalHaltingDurationSum="32.00" startedHalts="6.00" meanVehicleNumber="1.77" maxVehicleNumber="6" />
   <interval begin="30.00" end="60.00" id="venancio03" sampledSeconds="0.00" nVehEntered="0" nVehLeft="0" nVehSeen="0" meanSpeed="-1.00" meanTimeLoss="-1.00" meanOccupancy="0.00" maxOccupancy="0.00" meanMaxJamLengthInVehicles="0.00" meanMaxJamLengthInMeters="0.00" maxJamLengthInVehicles="0" maxJamLengthInMeters="0.00" jamLengthInVehiclesSum="0" jamLengthInMetersSum="0.00" meanHaltingDuration="0.00" maxHaltingDuration="0.00" haltingDurationSum="0.00" meanIntervalHaltingDuration="0.00" maxIntervalHaltingDuration="0.00" intervalHaltingDurationSum="0.00" startedHalts="0.00" meanVehicleNumber="0.00" maxVehicleNumber="0" />
   <interval begin="30.00" end="60.00" id="andradas03" sampledSeconds="0.00" nVehEntered="0" nVehLeft="0" nVehSeen="0" meanSpeed="-1.00" meanTimeLoss="-1.00" meanOccupancy="0.00" maxOccupancy="0.00" meanMaxJamLengthInVehicles="0.00" meanMaxJamLengthInMeters="0.00" maxJamLengthInVehicles="0" maxJamLengthInMeters="0.00" jamLengthInVehiclesSum="0" jamLengthInMetersSum="0.00" meanHaltingDuration="0.00" maxHaltingDuration="0.00" haltingDurationSum="0.00" meanIntervalHaltingDuration="0.00" maxIntervalHaltingDuration="0.00" intervalHaltingDurationSum="0.00" startedHalts="0.00" meanVehicleNumber="0.00" maxVehicleNumber="0" />
   <interval begin="30.00" end="60.00" id="andradas04" sampledSeconds="0.00" nVehEntered="0" nVehLeft="0" nVehSeen="0" meanSpeed="-1.00" meanTimeLoss="-1.00" meanOccupancy="0.00" maxOccupancy="0.00" meanMaxJamLengthInVehicles="0.00" meanMaxJamLengthInMeters="0.00" maxJamLengthInVehicles="0" maxJamLengthInMeters="0.00" jamLengthInVehiclesSum="0" jamLengthInMetersSum="0.00" meanHaltingDuration="0.00" maxHaltingDuration="0.00" haltingDurationSum="0.00" meanIntervalHaltingDuration="0.00" maxIntervalHaltingDuration="0.00" intervalHaltingDurationSum="0.00" startedHalts="0.00" meanVehicleNumber="0.00" maxVehicleNumber="0" />
   <interval begin="30.00" end="60.00" id="valandro01" sampledSeconds="16.84" nVehEntered="0" nVehLeft="1" nVehSeen="1" meanSpeed="0.16" meanTimeLoss="16.64" meanOccupancy="3.02" maxOccupancy="5.71" meanMaxJamLengthInVehicles="0.53" meanMaxJamLengthInMeters="1.06" maxJamLengthInVehicles="1" maxJamLengthInMeters="2.00" jamLengthInVehiclesSum="16" jamLengthInMetersSum="31.67" meanHaltingDuration="20.00" maxHaltingDuration="20.00" haltingDurationSum="20.00" meanIntervalHaltingDuration="16.00" maxIntervalHaltingDuration="16.00" intervalHaltingDurationSum="16.00" startedHalts="0.00" meanVehicleNumber="0.57" maxVehicleNumber="1" />
   <interval begin="30.00" end="60.00" id="valandro02" sampledSeconds="6.00" nVehEntered="2" nVehLeft="1" nVehSeen="2" meanSpeed="7.68" meanTimeLoss="1.34" meanOccupancy="1.12" maxOccupancy="5.71" meanMaxJamLengthInVehicles="0.00" meanMaxJamLengthInMeters="0.00" maxJamLengthInVehicles="0" maxJamLengthInMeters="0.00" jamLengthInVehiclesSum="0" jamLengthInMetersSum="0.00" meanHaltingDuration="0.00" maxHaltingDuration="0.00" haltingDurationSum="0.00" meanIntervalHaltingDuration="0.00" maxIntervalHaltingDuration="0.00" intervalHaltingDurationSum="0.00" startedHalts="0.00" meanVehicleNumber="0.27" maxVehicleNumber="1" />
   <interval begin="30.00" end="60.00" id="floriano01" sampledSeconds="9.75" nVehEntered="2" nVehLeft="2" nVehSeen="3" meanSpeed="10.96" meanTimeLoss="0.68" meanOccupancy="1.81" maxOccupancy="5.71" meanMaxJamLengthInVehicles="0.00" meanMaxJamLengthInMeters="0.00" maxJamLengthInVehicles="0" maxJamLengthInMeters="0.00" jamLengthInVehiclesSum="0" jamLengthInMetersSum="0.00" meanHaltingDuration="0.00" maxHaltingDuration="0.00" haltingDurationSum="0.00" meanIntervalHaltingDuration="0.00" maxIntervalHaltingDuration="0.00" intervalHaltingDurationSum="0.00" startedHalts="0.00" meanVehicleNumber="0.40" maxVehicleNumber="1" />
   <interval begin="30.00" end="60.00" id="floriano02" sampledSeconds="8.08" nVehEntered="2" nVehLeft="1" nVehSeen="2" meanSpeed="8.86" meanTimeLoss="1.46" meanOccupancy="1.71" maxOccupancy="5.71" meanMaxJamLengthInVehicles="0.03" meanMaxJamLengthInMeters="0.07" maxJamLengthInVehicles="1" maxJamLengthInMeters="2.00" jamLengthInVehiclesSum="1" jamLengthInMetersSum="2.00" meanHaltingDuration="2.00" maxHaltingDuration="2.00" haltingDurationSum="2.00" meanIntervalHaltingDuration="2.00" maxIntervalHaltingDuration="2.00" intervalHaltingDurationSum="2.00" startedHalts="1.00" meanVehicleNumber="0.33" maxVehicleNumber="1" />
   <interval begin="30.00" end="60.00" id="floriano03" sampledSeconds="2.70" nVehEntered="1" nVehLeft="1" nVehSeen="1" meanSpeed="13.71" meanTimeLoss="0.03" meanOccupancy="0.38" maxOccupancy="5.71" meanMaxJamLengthInVehicles="0.00" meanMaxJamLengthInMeters="0.00" maxJamLengthInVehicles="0" maxJamLengthInMeters="0.00" jamLengthInVehiclesSum="0" jamLengthInMetersSum="0.00" meanHaltingDuration="0.00" maxHaltingDuration="0.00" haltingDurationSum="0.00" meanIntervalHaltingDuration="0.00" maxIntervalHaltingDuration="0.00" intervalHaltingDurationSum="0.00" startedHalts="0.00" meanVehicleNumber="0.10" maxVehicleNumber="1" />
   <interval begin="60.00" end="90.00" id="silva01" sampledSeconds="6.11" nVehEntered="3" nVehLeft="3" nVehSeen="3" meanSpeed="18.18" meanTimeLoss="0.37" meanOccupancy="0.76" maxOccupancy="5.71" meanMaxJamLengthInVehicles="0.00" meanMaxJamLengthInMeters="0.00" maxJamLengthInVehicles="0" maxJamLengthInMeters="0.00" jamLengthInVehiclesSum="0" jamLengthInMetersSum="0.00" meanHaltingDuration="0.00" maxHaltingDuration="0.00" haltingDurationSum="0.00" meanIntervalHaltingDuration="0.00" maxIntervalHaltingDuration="0.00" intervalHaltingDurationSum="0.00" startedHalts="0.00" meanVehicleNumber="0.23" maxVehicleNumber="1" />
   <interval begin="60.00" end="90.00" id="silva02" sampledSeconds="0.00" nVehEntered="0" nVehLeft="4" nVehSeen="-1" meanSpeed="-1.00" meanTimeLoss="-0.00" meanOccupancy="0.00" maxOccupancy="0.00" meanMaxJamLengthInVehicles="0.00" meanMaxJamLengthInMeters="0.00" maxJamLengthInVehicles="0" maxJamLengthInMeters="0.00" jamLengthInVehiclesSum="0" jamLengthInMetersSum="0.00" meanHaltingDuration="0.00" maxHaltingDuration="0.00" haltingDurationSum="0.00" meanIntervalHaltingDuration="0.00" maxIntervalHaltingDuration="0.00" intervalHaltingDurationSum="0.00" startedHalts="0.00" meanVehicleNumber="0.00" maxVehicleNumber="0" />
   <interval begin="60.00" end="90.00" id="silva03" sampledSeconds="22.82" nVehEntered="4" nVehLeft="4" nVehSeen="4" meanSpeed="2.84" meanTimeLoss="4.98" meanOccupancy="7.44" maxOccupancy="20.00" meanMaxJamLengthInVehicles="0.43" meanMaxJamLengthInMeters="0.87" maxJamLengthInVehicles="1" maxJamLengthInMeters="2.00" jamLengthInVehiclesSum="13" jamLengthInMetersSum="26.00" meanHaltingDuration="14.00" maxHaltingDuration="14.00" haltingDurationSum="14.00" meanIntervalHaltingDuration="14.00" maxIntervalHaltingDuration="14.00" intervalHaltingDurationSum="14.00" startedHalts="1.00" meanVehicleNumber="0.83" maxVehicleNumber="2" />
   <interval begin="60.00" end="90.00" id="venancio01" sampledSeconds="53.04" nVehEntered="5" nVehLeft="1" nVehSeen="5" meanSpeed="2.64" meanTimeLoss="9.35" meanOccupancy="10.48" maxOccupancy="22.86" meanMaxJamLengthInVehicles="1.20" meanMaxJamLengthInMeters="4.15" maxJamLengthInVehicles="3" maxJamLengthInMeters="11.00" jamLengthInVehiclesSum="36" jamLengthInMetersSum="124.52" meanHaltingDuration="13.00" maxHaltingDuration="16.00" haltingDurationSum="39.00" meanIntervalHaltingDuration="13.00" maxIntervalHaltingDuration="16.00" intervalHaltingDurationSum="39.00" startedHalts="3.00" meanVehicleNumber="1.87" maxVehicleNumber="4" />
   <interval begin="60.00" end="90.00" id="venancio02" sampledSeconds="109.96" nVehEntered="1" nVehLeft="7" nVehSeen="7" meanSpeed="1.09" meanTimeLoss="14.94" meanOccupancy="20.03" maxOccupancy="40.00" meanMaxJamLengthInVehicles="2.67" meanMaxJamLengthInMeters="10.95" maxJamLengthInVehicles="7" maxJamLengthInMeters="30.01" jamLengthInVehiclesSum="80" jamLengthInMetersSum="328.56" meanHaltingDuration="16.14" maxHaltingDuration="17.00" haltingDurationSum="113.00" meanIntervalHaltingDuration="11.57" maxIntervalHaltingDuration="14.00" intervalHaltingDurationSum="81.00" startedHalts="1.00" meanVehicleNumber="3.80" maxVehicleNumber="7" />
   <interval begin="60.00" end="90.00" id="venancio03" sampledSeconds="8.24" nVehEntered="5" nVehLeft="3" nVehSeen="5" meanSpeed="18.32" meanTimeLoss="0.29" meanOccupancy="1.60" maxOccupancy="11.43" meanMaxJamLengthInVehicles="0.00" meanMaxJamLengthInMeters="0.00" maxJamLengthInVehicles="0" maxJamLengthInMeters="0.00" jamLengthInVehiclesSum="0" jamLengthInMetersSum="0.00" meanHaltingDuration="0.00" maxHaltingDuration="0.00" haltingDurationSum="0.00" meanIntervalHaltingDuration="0.00" maxIntervalHaltingDuration="0.00" intervalHaltingDurationSum="0.00" startedHalts="0.00" meanVehicleNumber="0.40" maxVehicleNumber="3" />
   <interval begin="60.00" end="90.00" id="andradas03" sampledSeconds="0.00" nVehEntered="0" nVehLeft="0" nVehSeen="0" meanSpeed="-1.00" meanTimeLoss="-1.00" meanOccupancy="0.00" maxOccupancy="0.00" meanMaxJamLengthInVehicles="0.00" meanMaxJamLengthInMeters="0.00" maxJamLengthInVehicles="0" maxJamLengthInMeters="0.00" jamLengthInVehiclesSum="0" jamLengthInMetersSum="0.00" meanHaltingDuration="0.00" maxHaltingDuration="0.00" haltingDurationSum="0.00" meanIntervalHaltingDuration="0.00" maxIntervalHaltingDuration="0.00" intervalHaltingDurationSum="0.00" startedHalts="0.00" meanVehicleNumber="0.00" maxVehicleNumber="0" />
   <interval begin="60.00" end="90.00" id="andradas04" sampledSeconds="0.00" nVehEntered="0" nVehLeft="0" nVehSeen="0" meanSpeed="-1.00" meanTimeLoss="-1.00" meanOccupancy="0.00" maxOccupancy="0.00" meanMaxJamLengthInVehicles="0.00" meanMaxJamLengthInMeters="0.00" maxJamLengthInVehicles="0" maxJamLengthInMeters="0.00" jamLengthInVehiclesSum="0" jamLengthInMetersSum="0.00" meanHaltingDuration="0.00" maxHaltingDuration="0.00" haltingDurationSum="0.00" meanIntervalHaltingDuration="0.00" maxIntervalHaltingDuration="0.00" intervalHaltingDurationSum="0.00" startedHalts="0.00" meanVehicleNumber="0.00" maxVehicleNumber="0" />
   <interval begin="60.00" end="90.00" id="valandro01" sampledSeconds="16.17" nVehEntered="6" nVehLeft="4" nVehSeen="6" meanSpeed="12.22" meanTimeLoss="0.32" meanOccupancy="3.05" maxOccupancy="11.43" meanMaxJamLengthInVehicles="0.00" meanMaxJamLengthInMeters="0.00" maxJamLengthInVehicles="0" maxJamLengthInMeters="0.00" jamLengthInVehiclesSum="0" jamLengthInMetersSum="0.00" meanHaltingDuration="1.00" maxHaltingDuration="1.00" haltingDurationSum="1.00" meanIntervalHaltingDuration="1.00" maxIntervalHaltingDuration="1.00" intervalHaltingDurationSum="1.00" startedHalts="1.00" meanVehicleNumber="0.70" maxVehicleNumber="2" />
   <interval begin="60.00" end="90.00" id="valandro02" sampledSeconds="22.97" nVehEntered="5" nVehLeft="6" nVehSeen="6" meanSpeed="9.27" meanTimeLoss="1.27" meanOccupancy="3.84" maxOccupancy="8.86" meanMaxJamLengthInVehicles="0.00" meanMaxJamLengthInMeters="0.00" maxJamLengthInVehicles="0" maxJamLengthInMeters="0.00" jamLengthInVehiclesSum="0" jamLengthInMetersSum="0.00" meanHaltingDuration="0.00" maxHaltingDuration="0.00" haltingDurationSum="0.00" meanIntervalHaltingDuration="0.00" maxIntervalHaltingDuration="0.00" intervalHaltingDurationSum="0.00" startedHalts="0.00" meanVehicleNumber="0.97" maxVehicleNumber="2" />
   <interval begin="60.00" end="90.00" id="floriano01" sampledSeconds="57.26" nVehEntered="1" nVehLeft="0" nVehSeen="2" meanSpeed="0.55" meanTimeLoss="27.49" meanOccupancy="8.08" maxOccupancy="8.46" meanMaxJamLengthInVehicles="1.73" meanMaxJamLengthInMeters="5.18" maxJamLengthInVehicles="2" maxJamLengthInMeters="6.50" jamLengthInVehiclesSum="52" jamLengthInMetersSum="155.29" meanHaltingDuration="27.00" maxHaltingDuration="30.00" haltingDurationSum="54.00" meanIntervalHaltingDuration="27.00" maxIntervalHaltingDuration="30.00" intervalHaltingDurationSum="54.00" startedHalts="2.00" meanVehicleNumber="1.93" maxVehicleNumber="2" />
   <interval begin="60.00" end="90.00" id="floriano02" sampledSeconds="16.70" nVehEntered="0" nVehLeft="1" nVehSeen="1" meanSpeed="0.14" meanTimeLoss="16.52" meanOccupancy="2.99" maxOccupancy="5.71" meanMaxJamLengthInVehicles="0.53" meanMaxJamLengthInMeters="1.05" maxJamLengthInVehicles="1" maxJamLengthInMeters="2.00" jamLengthInVehiclesSum="16" jamLengthInMetersSum="31.39" meanHaltingDuration="18.00" maxHaltingDuration="18.00" haltingDurationSum="18.00" meanIntervalHaltingDuration="16.00" maxIntervalHaltingDuration="16.00" intervalHaltingDurationSum="16.00" startedHalts="0.00" meanVehicleNumber="0.57" maxVehicleNumber="1" />
   <interval begin="60.00" end="90.00" id="floriano03" sampledSeconds="0.00" nVehEntered="0" nVehLeft="0" nVehSeen="0" meanSpeed="-1.00" meanTimeLoss="-1.00" meanOccupancy="0.00" maxOccupancy="0.00" meanMaxJamLengthInVehicles="0.00" meanMaxJamLengthInMeters="0.00" maxJamLengthInVehicles="0" maxJamLengthInMeters="0.00" jamLengthInVehiclesSum="0" jamLengthInMetersSum="0.00" meanHaltingDuration="0.00" maxHaltingDuration="0.00" haltingDurationSum="0.00" meanIntervalHaltingDuration="0.00" maxIntervalHaltingDuration="0.00" intervalHaltingDurationSum="0.00" startedHalts="0.00" meanVehicleNumber="0.00" maxVehicleNumber="0" />
   <interval begin="90.00" end="120.00" id="silva01" sampledSeconds="23.35" nVehEntered="4" nVehLeft="1" nVehSeen="4" meanSpeed="5.19" meanTimeLoss="4.47" meanOccupancy="4.38" maxOccupancy="17.14" meanMaxJamLengthInVehicles="0.30" meanMaxJamLengthInMeters="0.85" maxJamLengthInVehicles="2" maxJamLengthInMeters="6.50" jamLengthInVehiclesSum="9" jamLengthInMetersSum="25.50" meanHaltingDuration="5.50" maxHaltingDuration="7.00" haltingDurationSum="11.00" meanIntervalHaltingDuration="5.50" maxIntervalHaltingDuration="7.00" intervalHaltingDurationSum="11.00" startedHalts="2.00" meanVehicleNumber="0.80" maxVehicleNumber="3" />
   <interval begin="90.00" end="120.00" id="silva02" sampledSeconds="0.00" nVehEntered="0" nVehLeft="0" nVehSeen="-5" meanSpeed="-1.00" meanTimeLoss="-0.00" meanOccupancy="0.00" maxOccupancy="0.00" meanMaxJamLengthInVehicles="0.00" meanMaxJamLengthInMeters="0.00" maxJamLengthInVehicles="0" maxJamLengthInMeters="0.00" jamLengthInVehiclesSum="0" jamLengthInMetersSum="0.00" meanHaltingDuration="0.00" maxHaltingDuration="0.00" haltingDurationSum="0.00" meanIntervalHaltingDuration="0.00" maxIntervalHaltingDuration="0.00" intervalHaltingDurationSum="0.00" startedHalts="0.00" meanVehicleNumber="0.00" maxVehicleNumber="0" />
   <interval begin="90.00" end="120.00" id="silva03" sampledSeconds="0.00" nVehEntered="0" nVehLeft="0" nVehSeen="0" meanSpeed="-1.00" meanTimeLoss="-1.00" meanOccupancy="0.00" maxOccupancy="0.00" meanMaxJamLengthInVehicles="0.00" meanMaxJamLengthInMeters="0.00" maxJamLengthInVehicles="0" maxJamLengthInMeters="0.00" jamLengthInVehiclesSum="0" jamLengthInMetersSum="0.00" meanHaltingDuration="0.00" maxHaltingDuration="0.00" haltingDurationSum="0.00" meanIntervalHaltingDuration="0.00" maxIntervalHaltingDuration="0.00" intervalHaltingDurationSum="0.00" startedHalts="0.00" meanVehicleNumber="0.00" maxVehicleNumber="0" />
   <interval begin="90.00" end="120.00" id="venancio01" sampledSeconds="62.85" nVehEntered="7" nVehLeft="11" nVehSeen="11" meanSpeed="4.84" meanTimeLoss="4.47" meanOccupancy="11.48" maxOccupancy="28.57" meanMaxJamLengthInVehicles="0.57" meanMaxJamLengthInMeters="2.07" maxJamLengthInVehicles="4" maxJamLengthInMeters="16.50" jamLengthInVehiclesSum="17" jamLengthInMetersSum="62.01" meanHaltingDuration="11.60" maxHaltingDuration="19.00" haltingDurationSum="58.00" meanIntervalHaltingDuration="3.80" maxIntervalHaltingDuration="5.00" intervalHaltingDurationSum="19.00" startedHalts="2.00" meanVehicleNumber="2.43" maxVehicleNumber="5" />
   <interval begin="90.00" end="120.00" id="venancio02" sampledSeconds="63.49" nVehEntered="8" nVehLeft="0" nVehSeen="8" meanSpeed="2.37" meanTimeLoss="7.09" meanOccupancy="12.69" maxOccupancy="45.71" meanMaxJamLengthInVehicles="1.20" meanMaxJamLengthInMeters="4.73" maxJamLengthInVehicles="8" maxJamLengthInMeters="33.51" jamLengthInVehiclesSum="36" jamLengthInMetersSum="142.03" meanHaltingDuration="5.50" maxHaltingDuration="9.00" haltingDurationSum="44.00" meanIntervalHaltingDuration="5.50" maxIntervalHaltingDuration="9.00" intervalHaltingDurationSum="44.00" startedHalts="8.00" meanVehicleNumber="2.27" maxVehicleNumber="8" />
   <interval begin="90.00" end="120.00" id="venancio03" sampledSeconds="6.02" nVehEntered="2" nVehLeft="4" nVehSeen="4" meanSpeed="17.95" meanTimeLoss="0.29" meanOccupancy="0.95" maxOccupancy="11.43" meanMaxJamLengthInVehicles="0.00" meanMaxJamLengthInMeters="0.00" maxJamLengthInVehicles="0" maxJamLengthInMeters="0.00" jamLengthInVehiclesSum="0" jamLengthInMetersSum="0.00" meanHaltingDuration="0.00" maxHaltingDuration="0.00" haltingDurationSum="0.00" meanIntervalHaltingDuration="0.00" maxIntervalHaltingDuration="0.00" intervalHaltingDurationSum="0.00" startedHalts="0.00" meanVehicleNumber="0.30" maxVehicleNumber="3" />
   <interval begin="90.00" end="120.00" id="andradas03" sampledSeconds="85.41" nVehEntered="11" nVehLeft="8" nVehSeen="11" meanSpeed="4.10" meanTimeLoss="6.33" meanOccupancy="15.59" maxOccupancy="34.29" meanMaxJamLengthInVehicles="0.53" meanMaxJamLengthInMeters="1.79" maxJamLengthInVehicles="2" maxJamLengthInMeters="7.50" jamLengthInVehiclesSum="16" jamLengthInMetersSum="53.61" meanHaltingDuration="3.00" maxHaltingDuration="3.00" haltingDurationSum="24.00" meanIntervalHaltingDuration="3.00" maxIntervalHaltingDuration="3.00" intervalHaltingDurationSum="24.00" startedHalts="8.00" meanVehicleNumber="3.13" maxVehicleNumber="6" />