<?xml version="1.0" encoding="UTF-8"?>

<!-- generated on 22/10/2018 01:29:29 by SUMO gui Version 0.32.0
<?xml version="1.0" encoding="UTF-8"?>

<configuration xmlns:xsi="http://www.w3.org/2001/XMLSchema-instance" xsi:noNamespaceSchemaLocation="http://sumo.dlr.de/xsd/sumoConfiguration.xsd">

    <input>
        <net-file value="datsm/netsm.net.xml"/>
        <route-files value="datsm/routes.rou.xml"/>
        <additional-files value="datsm/loops.det.xml"/>
    </input>

    <time>
        <begin value="0"/>
        <end value="30"/>
    </time>

    <traci_server>
        <remote-port value="56055"/>
    </traci_server>

    <gui_only>
        <gui-settings-file value="datsm/gui-settings.cfg"/>
    </gui_only>

</configuration>
-->

<detector xmlns:xsi="http://www.w3.org/2001/XMLSchema-instance" xsi:noNamespaceSchemaLocation="http://sumo.dlr.de/xsd/det_e2_file.xsd">
   <interval begin="0.00" end="30.00" id="silva01" sampledSeconds="1.06" nVehEntered="1" nVehLeft="0" nVehSeen="1" meanSpeed="17.82" meanTimeLoss="0.21" meanOccupancy="0.50" maxOccupancy="11.43" meanMaxJamLengthInVehicles="0.00" meanMaxJamLengthInMeters="0.00" maxJamLengthInVehicles="0" maxJamLengthInMeters="0.00" jamLengthInVehiclesSum="0" jamLengthInMetersSum="0.00" meanHaltingDuration="0.00" maxHaltingDuration="0.00" haltingDurationSum="0.00" meanIntervalHaltingDuration="0.00" maxIntervalHaltingDuration="0.00" intervalHaltingDurationSum="0.00" startedHalts="0.00" meanVehicleNumber="0.07" maxVehicleNumber="1" />
   <interval begin="0.00" end="30.00" id="silva02" sampledSeconds="0.00" nVehEntered="0" nVehLeft="0" nVehSeen="0" meanSpeed="-1.00" meanTimeLoss="-1.00" meanOccupancy="0.00" maxOccupancy="0.00" meanMaxJamLengthInVehicles="0.00" meanMaxJamLengthInMeters="0.00" maxJamLengthInVehicles="0" maxJamLengthInMeters="0.00" jamLengthInVehiclesSum="0" jamLengthInMetersSum="0.00" meanHaltingDuration="0.00" maxHaltingDuration="0.00" haltingDurationSum="0.00" meanIntervalHaltingDuration="0.00" maxIntervalHaltingDuration="0.00" intervalHaltingDurationSum="0.00" startedHalts="0.00" meanVehicleNumber="0.00" maxVehicleNumber="0" />
   <interval begin="0.00" end="30.00" id="silva03" sampledSeconds="0.00" nVehEntered="0" nVehLeft="0" nVehSeen="0" meanSpeed="-1.00" meanTimeLoss="-1.00" meanOccupancy="0.00" maxOccupancy="0.00" meanMaxJamLengthInVehicles="0.00" meanMaxJamLengthInMeters="0.00" maxJamLengthInVehicles="0" maxJamLengthInMeters="0.00" jamLengthInVehiclesSum="0" jamLengthInMetersSum="0.00" meanHaltingDuration="0.00" maxHaltingDuration="0.00" haltingDurationSum="0.00" meanIntervalHaltingDuration="0.00" maxIntervalHaltingDuration="0.00" intervalHaltingDurationSum="0.00" startedHalts="0.00" meanVehicleNumber="0.00" maxVehicleNumber="0" />
   <interval begin="0.00" end="30.00" id="venancio01" sampledSeconds="6.50" nVehEntered="3" nVehLeft="3" nVehSeen="3" meanSpeed="17.99" meanTimeLoss="0.41" meanOccupancy="2.29" maxOccupancy="11.43" meanMaxJamLengthInVehicles="0.00" meanMaxJamLengthInMeters="0.00" maxJamLengthInVehicles="0" maxJamLengthInMeters="0.00" jamLengthInVehiclesSum="0" jamLengthInMetersSum="0.00" meanHaltingDuration="0.00" maxHaltingDuration="0.00" haltingDurationSum="0.00" meanIntervalHaltingDuration="0.00" maxIntervalHaltingDuration="0.00" intervalHaltingDurationSum="0.00" startedHalts="0.00" meanVehicleNumber="0.30" maxVehicleNumber="1" />
   <interval begin="0.00" end="30.00" id="venancio02" sampledSeconds="1.76" nVehEntered="1" nVehLeft="1" nVehSeen="1" meanSpeed="22.22" meanTimeLoss="0.00" meanOccupancy="0.38" maxOccupancy="11.43" meanMaxJamLengthInVehicles="0.00" meanMaxJamLengthInMeters="0.00" maxJamLengthInVehicles="0" maxJamLengthInMeters="0.00" jamLengthInVehiclesSum="0" jamLengthInMetersSum="0.00" meanHaltingDuration="0.00" maxHaltingDuration="0.00" haltingDurationSum="0.00" meanIntervalHaltingDuration="0.00" maxIntervalHaltingDuration="0.00" intervalHaltingDurationSum="0.00" startedHalts="0.00" meanVehicleNumber="0.07" maxVehicleNumber="1" />
   <interval begin="0.00" end="30.00" id="venancio03" sampledSeconds="0.00" nVehEntered="0" nVehLeft="0" nVehSeen="0" meanSpeed="-1.00" meanTimeLoss="-1.00" meanOccupancy="0.00" maxOccupancy="0.00" meanMaxJamLengthInVehicles="0.00" meanMaxJamLengthInMeters="0.00" maxJamLengthInVehicles="0" maxJamLengthInMeters="0.00" jamLengthInVehiclesSum="0" jamLengthInMetersSum="0.00" meanHaltingDuration="0.00" maxHaltingDuration="0.00" haltingDurationSum="0.00" meanIntervalHaltingDuration="0.00" maxIntervalHaltingDuration="0.00" intervalHaltingDurationSum="0.00" startedHalts="0.00" meanVehicleNumber="0.00" maxVehicleNumber="0" />
   <interval begin="0.00" end="30.00" id="andradas03" sampledSeconds="0.00" nVehEntered="0" nVehLeft="0" nVehSeen="0" meanSpeed="-1.00" meanTimeLoss="-1.00" meanOccupancy="0.00" maxOccupancy="0.00" meanMaxJamLengthInVehicles="0.00" meanMaxJamLengthInMeters="0.00" maxJamLengthInVehicles="0" maxJamLengthInMeters="0.00" jamLengthInVehiclesSum="0" jamLengthInMetersSum="0.00" meanHaltingDuration="0.00" maxHaltingDuration="0.00" haltingDurationSum="0.00" meanIntervalHaltingDuration="0.00" maxIntervalHaltingDuration="0.00" intervalHaltingDurationSum="0.00" startedHalts="0.00" meanVehicleNumber="0.00" maxVehicleNumber="0" />
   <interval begin="0.00" end="30.00" id="andradas04" sampledSeconds="0.00" nVehEntered="0" nVehLeft="0" nVehSeen="0" meanSpeed="-1.00" meanTimeLoss="-1.00" meanOccupancy="0.00" maxOccupancy="0.00" meanMaxJamLengthInVehicles="0.00" meanMaxJamLengthInMeters="0.00" maxJamLengthInVehicles="0" maxJamLengthInMeters="0.00" jamLengthInVehiclesSum="0" jamLengthInMetersSum="0.00" meanHaltingDuration="0.00" maxHaltingDuration="0.00" haltingDurationSum="0.00" meanIntervalHaltingDuration="0.00" maxIntervalHaltingDuration="0.00" intervalHaltingDurationSum="0.00" startedHalts="0.00" meanVehicleNumber="0.00" maxVehicleNumber="0" />
   <interval begin="0.00" end="30.00" id="valandro01" sampledSeconds="0.00" nVehEntered="0" nVehLeft="0" nVehSeen="0" meanSpeed="-1.00" meanTimeLoss="-1.00" meanOccupancy="0.00" maxOccupancy="0.00" meanMaxJamLengthInVehicles="0.00" meanMaxJamLengthInMeters="0.00" maxJamLengthInVehicles="0" maxJamLengthInMeters="0.00" jamLengthInVehiclesSum="0" jamLengthInMetersSum="0.00" meanHaltingDuration="0.00" maxHaltingDuration="0.00" haltingDurationSum="0.00" meanIntervalHaltingDuration="0.00" maxIntervalHaltingDuration="0.00" intervalHaltingDurationSum="0.00" startedHalts="0.00" meanVehicleNumber="0.00" maxVehicleNumber="0" />
   <interval begin="0.00" end="30.00" id="valandro02" sampledSeconds="27.33" nVehEntered="3" nVehLeft="0" nVehSeen="3" meanSpeed="3.43" meanTimeLoss="6.86" meanOccupancy="8.06" maxOccupancy="26.49" meanMaxJamLengthInVehicles="0.40" meanMaxJamLengthInMeters="1.30" maxJamLengthInVehicles="2" maxJamLengthInMeters="10.50" jamLengthInVehiclesSum="12" jamLengthInMetersSum="39.13" meanHaltingDuration="5.00" maxHaltingDuration="10.00" haltingDurationSum="15.00" meanIntervalHaltingDuration="5.00" maxIntervalHaltingDuration="10.00" intervalHaltingDurationSum="15.00" startedHalts="3.00" meanVehicleNumber="0.97" maxVehicleNumber="3" />
   <interval begin="0.00" end="30.00" id="floriano01" sampledSeconds="6.18" nVehEntered="2" nVehLeft="2" nVehSeen="2" meanSpeed="12.62" meanTimeLoss="0.28" meanOccupancy="2.29" maxOccupancy="11.43" meanMaxJamLengthInVehicles="0.00" meanMaxJamLengthInMeters="0.00" maxJamLengthInVehicles="0" maxJamLengthInMeters="0.00" jamLengthInVehiclesSum="0" jamLengthInMetersSum="0.00" meanHaltingDuration="0.00" maxHaltingDuration="0.00" haltingDurationSum="0.00" meanIntervalHaltingDuration="0.00" maxIntervalHaltingDuration="0.00" intervalHaltingDurationSum="0.00" startedHalts="0.00" meanVehicleNumber="0.27" maxVehicleNumber="1" />
   <interval begin="0.00" end="30.00" id="floriano02" sampledSeconds="0.15" nVehEntered="1" nVehLeft="0" nVehSeen="1" meanSpeed="13.89" meanTimeLoss="0.00" meanOccupancy="0.20" maxOccupancy="5.85" meanMaxJamLengthInVehicles="0.00" meanMaxJamLengthInMeters="0.00" maxJamLengthInVehicles="0" maxJamLengthInMeters="0.00" jamLengthInVehiclesSum="0" jamLengthInMetersSum="0.00" meanHaltingDuration="0.00" maxHaltingDuration="0.00" haltingDurationSum="0.00" meanIntervalHaltingDuration="0.00" maxIntervalHaltingDuration="0.00" intervalHaltingDurationSum="0.00" startedHalts="0.00" meanVehicleNumber="0.03" maxVehicleNumber="1" />
   <interval begin="0.00" end="30.00" id="floriano03" sampledSeconds="0.00" nVehEntered="0" nVehLeft="0" nVehSeen="0" meanSpeed="-1.00" meanTimeLoss="-1.00" meanOccupancy="0.00" maxOccupancy="0.00" meanMaxJamLengthInVehicles="0.00" meanMaxJamLengthInMeters="0.00" maxJamLengthInVehicles="0" maxJamLengthInMeters="0.00" jamLengthInVehiclesSum="0" jamLengthInMetersSum="0.00" meanHaltingDuration="0.00" maxHaltingDuration="0.00" haltingDurationSum="0.00" meanIntervalHaltingDuration="0.00" maxIntervalHaltingDuration="0.00" intervalHaltingDurationSum="0.00" startedHalts="0.00" meanVehicleNumber="0.00" maxVehicleNumber="0" />
   <interval begin="30.00" end="60.00" id="silva01" sampledSeconds="6.83" nVehEntered="3" nVehLeft="4" nVehSeen="4" meanSpeed="20.10" meanTimeLoss="0.16" meanOccupancy="1.88" maxOccupancy="11.43" meanMaxJamLengthInVehicles="0.00" meanMaxJamLengthInMeters="0.00" maxJamLengthInVehicles="0" maxJamLengthInMeters="0.00" jamLengthInVehiclesSum="0" jamLengthInMetersSum="0.00" meanHaltingDuration="0.00" maxHaltingDuration="0.00" haltingDurationSum="0.00" meanIntervalHaltingDuration="0.00" maxIntervalHaltingDuration="0.00" intervalHaltingDurationSum="0.00" startedHalts="0.00" meanVehicleNumber="0.37" maxVehicleNumber="1" />
   <interval begin="30.00" end="60.00" id="silva02" sampledSeconds="0.00" nVehEntered="0" nVehLeft="4" nVehSeen="0" meanSpeed="-1.00" meanTimeLoss="-1.00" meanOccupancy="0.00" maxOccupancy="0.00" meanMaxJamLengthInVehicles="0.00" meanMaxJamLengthInMeters="0.00" maxJamLengthInVehicles="0" maxJamLengthInMeters="0.00" jamLengthInVehiclesSum="0" jamLengthInMetersSum="0.00" meanHaltingDuration="0.00" maxHaltingDuration="0.00" haltingDurationSum="0.00" meanIntervalHaltingDuration="0.00" maxIntervalHaltingDuration="0.00" intervalHaltingDurationSum="0.00" startedHalts="0.00" meanVehicleNumber="0.00" maxVehicleNumber="0" />
   <interval begin="30.00" end="60.00" id="silva03" sampledSeconds="0.00" nVehEntered="0" nVehLeft="0" nVehSeen="0" meanSpeed="-1.00" meanTimeLoss="-1.00" meanOccupancy="0.00" maxOccupancy="0.00" meanMaxJamLengthInVehicles="0.00" meanMaxJamLengthInMeters="0.00" maxJamLengthInVehicles="0" maxJamLengthInMeters="0.00" jamLengthInVehiclesSum="0" jamLengthInMetersSum="0.00" meanHaltingDuration="0.00" maxHaltingDuration="0.00" haltingDurationSum="0.00" meanIntervalHaltingDuration="0.00" maxIntervalHaltingDuration="0.00" intervalHaltingDurationSum="0.00" startedHalts="0.00" meanVehicleNumber="0.00" maxVehicleNumber="0" />
   <interval begin="30.00" end="60.00" id="venancio01" sampledSeconds="67.76" nVehEntered="6" nVehLeft="4" nVehSeen="6" meanSpeed="2.92" meanTimeLoss="9.81" meanOccupancy="21.05" maxOccupancy="45.71" meanMaxJamLengthInVehicles="1.07" meanMaxJamLengthInMeters="5.20" maxJamLengthInVehicles="3" maxJamLengthInMeters="18.00" jamLengthInVehiclesSum="32" jamLengthInMetersSum="156.04" meanHaltingDuration="7.00" maxHaltingDuration="12.00" haltingDurationSum="21.00" meanIntervalHaltingDuration="7.00" maxIntervalHaltingDuration="12.00" intervalHaltingDurationSum="21.00" startedHalts="4.00" meanVehicleNumber="2.40" maxVehicleNumber="4" />
   <interval begin="30.00" end="60.00" id="venancio02" sampledSeconds="3.51" nVehEntered="2" nVehLeft="2" nVehSeen="2" meanSpeed="22.22" meanTimeLoss="0.00" meanOccupancy="0.76" maxOccupancy="11.43" meanMaxJamLengthInVehicles="0.00" meanMaxJamLengthInMeters="0.00" maxJamLengthInVehicles="0" maxJamLengthInMeters="0.00" jamLengthInVehiclesSum="0" jamLengthInMetersSum="0.00" meanHaltingDuration="0.00" maxHaltingDuration="0.00" haltingDurationSum="0.00" meanIntervalHaltingDuration="0.00" maxIntervalHaltingDuration="0.00" intervalHaltingDurationSum="0.00" startedHalts="0.00" meanVehicleNumber="0.13" maxVehicleNumber="1" />
   <interval begin="30.00" end="60.00" id="venancio03" sampledSeconds="38.96" nVehEntered="3" nVehLeft="1" nVehSeen="3" meanSpeed="2.78" meanTimeLoss="11.36" meanOccupancy="9.80" maxOccupancy="14.43" meanMaxJamLengthInVehicles="0.90" meanMaxJamLengthInMeters="4.03" maxJamLengthInVehicles="2" maxJamLengthInMeters="10.50" jamLengthInVehiclesSum="27" jamLengthInMetersSum="120.77" meanHaltingDuration="14.50" maxHaltingDuration="17.00" haltingDurationSum="29.00" meanIntervalHaltingDuration="14.50" maxIntervalHaltingDuration="17.00" intervalHaltingDurationSum="29.00" startedHalts="2.00" meanVehicleNumber="1.33" maxVehicleNumber="2" />
   <interval begin="30.00" end="60.00" id="andradas03" sampledSeconds="0.00" nVehEntered="0" nVehLeft="0" nVehSeen="0" meanSpeed="-1.00" meanTimeLoss="-1.00" meanOccupancy="0.00" maxOccupancy="0.00" meanMaxJamLengthInVehicles="0.00" meanMaxJamLengthInMeters="0.00" maxJamLengthInVehicles="0" maxJamLengthInMeters="0.00" jamLengthInVehiclesSum="0" jamLengthInMetersSum="0.00" meanHaltingDuration="0.00" maxHaltingDuration="0.00" haltingDurationSum="0.00" meanIntervalHaltingDuration="0.00" maxIntervalHaltingDuration="0.00" intervalHaltingDurationSum="0.00" startedHalts="0.00" meanVehicleNumber="0.00" maxVehicleNumber="0" />
   <interval begin="30.00" end="60.00" id="andradas04" sampledSeconds="0.00" nVehEntered="0" nVehLeft="0" nVehSeen="0" meanSpeed="-1.00" meanTimeLoss="-1.00" meanOccupancy="0.00" maxOccupancy="0.00" meanMaxJamLengthInVehicles="0.00" meanMaxJamLengthInMeters="0.00" maxJamLengthInVehicles="0" maxJamLengthInMeters="0.00" jamLengthInVehiclesSum="0" jamLengthInMetersSum="0.00" meanHaltingDuration="0.00" maxHaltingDuration="0.00" haltingDurationSum="0.00" meanIntervalHaltingDuration="0.00" maxIntervalHaltingDuration="0.00" intervalHaltingDurationSum="0.00" startedHalts="0.00" meanVehicleNumber="0.00" maxVehicleNumber="0" />
   <interval begin="30.00" end="60.00" id="valandro01" sampledSeconds="40.06" nVehEntered="6" nVehLeft="2" nVehSeen="6" meanSpeed="4.40" meanTimeLoss="4.56" meanOccupancy="15.37" maxOccupancy="45.71" meanMaxJamLengthInVehicles="0.60" meanMaxJamLengthInMeters="3.40" maxJamLengthInVehicles="4" maxJamLengthInMeters="23.50" jamLengthInVehiclesSum="18" jamLengthInMetersSum="102.01" meanHaltingDuration="5.50" maxHaltingDuration="7.00" haltingDurationSum="22.00" meanIntervalHaltingDuration="5.50" maxIntervalHaltingDuration="7.00" intervalHaltingDurationSum="22.00" startedHalts="4.00" meanVehicleNumber="1.47" maxVehicleNumber="4" />
   <interval begin="30.00" end="60.00" id="valandro02" sampledSeconds="51.37" nVehEntered="5" nVehLeft="6" nVehSeen="8" meanSpeed="4.07" meanTimeLoss="4.54" meanOccupancy="15.58" maxOccupancy="34.29" meanMaxJamLengthInVehicles="0.57" meanMaxJamLengthInMeters="2.29" maxJamLengthInVehicles="3" maxJamLengthInMeters="18.00" jamLengthInVehiclesSum="17" jamLengthInMetersSum="68.63" meanHaltingDuration="6.80" maxHaltingDuration="12.00" haltingDurationSum="34.00" meanIntervalHaltingDuration="3.80" maxIntervalHaltingDuration="8.00" intervalHaltingDurationSum="19.00" startedHalts="2.00" meanVehicleNumber="1.87" maxVehicleNumber="4" />
   <interval begin="30.00" end="60.00" id="floriano01" sampledSeconds="5.42" nVehEntered="1" nVehLeft="0" nVehSeen="1" meanSpeed="6.64" meanTimeLoss="2.83" meanOccupancy="2.08" maxOccupancy="11.43" meanMaxJamLengthInVehicles="0.03" meanMaxJamLengthInMeters="0.10" maxJamLengthInVehicles="1" maxJamLengthInMeters="2.96" jamLengthInVehiclesSum="1" jamLengthInMetersSum="2.96" meanHaltingDuration="2.00" maxHaltingDuration="2.00" haltingDurationSum="2.00" meanIntervalHaltingDuration="2.00" maxIntervalHaltingDuration="2.00" intervalHaltingDurationSum="2.00" startedHalts="1.00" meanVehicleNumber="0.20" maxVehicleNumber="1" />
   <interval begin="30.00" end="60.00" id="floriano02" sampledSeconds="24.20" nVehEntered="1" nVehLeft="2" nVehSeen="2" meanSpeed="3.14" meanTimeLoss="9.37" meanOccupancy="8.54" maxOccupancy="22.86" meanMaxJamLengthInVehicles="0.37" meanMaxJamLengthInMeters="1.67" maxJamLengthInVehicles="2" maxJamLengthInMeters="11.50" jamLengthInVehiclesSum="11" jamLengthInMetersSum="50.00" meanHaltingDuration="6.50" maxHaltingDuration="9.00" haltingDurationSum="13.00" meanIntervalHaltingDuration="6.50" maxIntervalHaltingDuration="9.00" intervalHaltingDurationSum="13.00" startedHalts="2.00" meanVehicleNumber="0.87" maxVehicleNumber="2" />
   <interval begin="30.00" end="60.00" id="floriano03" sampledSeconds="5.81" nVehEntered="2" nVehLeft="0" nVehSeen="2" meanSpeed="11.18" meanTimeLoss="0.57" meanOccupancy="2.19" maxOccupancy="22.86" meanMaxJamLengthInVehicles="0.00" meanMaxJamLengthInMeters="0.00" maxJamLengthInVehicles="0" maxJamLengthInMeters="0.00" jamLengthInVehiclesSum="0" jamLengthInMetersSum="0.00" meanHaltingDuration="0.00" maxHaltingDuration="0.00" haltingDurationSum="0.00" meanIntervalHaltingDuration="0.00" maxIntervalHaltingDuration="0.00" intervalHaltingDurationSum="0.00" startedHalts="0.00" meanVehicleNumber="0.23" maxVehicleNumber="2" />
   <interval begin="60.00" end="90.00" id="silva01" sampledSeconds="8.32" nVehEntered="4" nVehLeft="3" nVehSeen="4" meanSpeed="18.74" meanTimeLoss="0.33" meanOccupancy="2.39" maxOccupancy="11.43" meanMaxJamLengthInVehicles="0.00" meanMaxJamLengthInMeters="0.00" maxJamLengthInVehicles="0" maxJamLengthInMeters="0.00" jamLengthInVehiclesSum="0" jamLengthInMetersSum="0.00" meanHaltingDuration="0.00" maxHaltingDuration="0.00" haltingDurationSum="0.00" meanIntervalHaltingDuration="0.00" maxIntervalHaltingDuration="0.00" intervalHaltingDurationSum="0.00" startedHalts="0.00" meanVehicleNumber="0.43" maxVehicleNumber="1" />
   <interval begin="60.00" end="90.00" id="silva02" sampledSeconds="0.00" nVehEntered="0" nVehLeft="3" nVehSeen="-4" meanSpeed="-1.00" meanTimeLoss="-0.00" meanOccupancy="0.00" maxOccupancy="0.00" meanMaxJamLengthInVehicles="0.00" meanMaxJamLengthInMeters="0.00" maxJamLengthInVehicles="0" maxJamLengthInMeters="0.00" jamLengthInVehiclesSum="0" jamLengthInMetersSum="0.00" meanHaltingDuration="0.00" maxHaltingDuration="0.00" haltingDurationSum="0.00" meanIntervalHaltingDuration="0.00" maxIntervalHaltingDuration="0.00" intervalHaltingDurationSum="0.00" startedHalts="0.00" meanVehicleNumber="0.00" maxVehicleNumber="0" />
   <interval begin="60.00" end="90.00" id="silva03" sampledSeconds="41.43" nVehEntered="6" nVehLeft="4" nVehSeen="6" meanSpeed="1.92" meanTimeLoss="6.31" meanOccupancy="27.50" maxOccupancy="56.88" meanMaxJamLengthInVehicles="0.80" meanMaxJamLengthInMeters="4.07" maxJamLengthInVehicles="2" maxJamLengthInMeters="11.50" jamLengthInVehiclesSum="24" jamLengthInMetersSum="122.01" meanHaltingDuration="13.00" maxHaltingDuration="14.00" haltingDurationSum="26.00" meanIntervalHaltingDuration="13.00" maxIntervalHaltingDuration="14.00" intervalHaltingDurationSum="26.00" startedHalts="2.00" meanVehicleNumber="1.47" maxVehicleNumber="3" />
   <interval begin="60.00" end="90.00" id="venancio01" sampledSeconds="35.15" nVehEntered="4" nVehLeft="4" nVehSeen="6" meanSpeed="5.22" meanTimeLoss="4.48" meanOccupancy="8.79" maxOccupancy="22.86" meanMaxJamLengthInVehicles="0.50" meanMaxJamLengthInMeters="1.31" maxJamLengthInVehicles="2" maxJamLengthInMeters="10.50" jamLengthInVehiclesSum="15" jamLengthInMetersSum="39.43" meanHaltingDuration="8.50" maxHaltingDuration="13.00" haltingDurationSum="17.00" meanIntervalHaltingDuration="8.50" maxIntervalHaltingDuration="13.00" intervalHaltingDurationSum="17.00" startedHalts="2.00" meanVehicleNumber="1.27" maxVehicleNumber="2" />
   <interval begin="60.00" end="90.00" id="venancio02" sampledSeconds="65.61" nVehEntered="8" nVehLeft="8" nVehSeen="8" meanSpeed="4.76" meanTimeLoss="6.45" meanOccupancy="23.06" maxOccupancy="51.50" meanMaxJamLengthInVehicles="0.20" meanMaxJamLengthInMeters="0.75" maxJamLengthInVehicles="1" maxJamLengthInMeters="4.00" jamLengthInVehiclesSum="6" jamLengthInMetersSum="22.50" meanHaltingDuration="2.00" maxHaltingDuration="2.00" haltingDurationSum="12.00" meanIntervalHaltingDuration="2.00" maxIntervalHaltingDuration="2.00" intervalHaltingDurationSum="12.00" startedHalts="6.00" meanVehicleNumber="2.47" maxVehicleNumber="5" />
   <interval begin="60.00" end="90.00" id="venancio03" sampledSeconds="47.00" nVehEntered="2" nVehLeft="2" nVehSeen="4" meanSpeed="0.78" meanTimeLoss="11.34" meanOccupancy="11.84" maxOccupancy="16.25" meanMaxJamLengthInVehicles="1.43" meanMaxJamLengthInMeters="7.52" maxJamLengthInVehicles="2" maxJamLengthInMeters="11.50" jamLengthInVehiclesSum="43" jamLengthInMetersSum="225.52" meanHaltingDuration="36.00" maxHaltingDuration="38.00" haltingDurationSum="72.00" meanIntervalHaltingDuration="21.50" maxIntervalHaltingDuration="22.00" intervalHaltingDurationSum="43.00" startedHalts="0.00" meanVehicleNumber="1.67" maxVehicleNumber="2" />
   <interval begin="60.00" end="90.00" id="andradas03" sampledSeconds="0.00" nVehEntered="0" nVehLeft="0" nVehSeen="0" meanSpeed="-1.00" meanTimeLoss="-1.00" meanOccupancy="0.00" maxOccupancy="0.00" meanMaxJamLengthInVehicles="0.00" meanMaxJamLengthInMeters="0.00" maxJamLengthInVehicles="0" maxJamLengthInMeters="0.00" jamLengthInVehiclesSum="0" jamLengthInMetersSum="0.00" meanHaltingDuration="0.00" maxHaltingDuration="0.00" haltingDurationSum="0.00" meanIntervalHaltingDuration="0.00" maxIntervalHaltingDuration="0.00" intervalHaltingDurationSum="0.00" startedHalts="0.00" meanVehicleNumber="0.00" maxVehicleNumber="0" />
   <interval begin="60.00" end="90.00" id="andradas04" sampledSeconds="0.00" nVehEntered="0" nVehLeft="0" nVehSeen="0" meanSpeed="-1.00" meanTimeLoss="-1.00" meanOccupancy="0.00" maxOccupancy="0.00" meanMaxJamLengthInVehicles="0.00" meanMaxJamLengthInMeters="0.00" maxJamLengthInVehicles="0" maxJamLengthInMeters="0.00" jamLengthInVehiclesSum="0" jamLengthInMetersSum="0.00" meanHaltingDuration="0.00" maxHaltingDuration="0.00" haltingDurationSum="0.00" meanIntervalHaltingDuration="0.00" maxIntervalHaltingDuration="0.00" intervalHaltingDurationSum="0.00" startedHalts="0.00" meanVehicleNumber="0.00" maxVehicleNumber="0" />
   <interval begin="60.00" end="90.00" id="valandro01" sampledSeconds="36.72" nVehEntered="2" nVehLeft="4" nVehSeen="6" meanSpeed="2.88" meanTimeLoss="4.85" meanOccupancy="12.98" maxOccupancy="45.71" meanMaxJamLengthInVehicles="0.60" meanMaxJamLengthInMeters="3.50" maxJamLengthInVehicles="4" maxJamLengthInMeters="24.50" jamLengthInVehiclesSum="18" jamLengthInMetersSum="105.01" meanHaltingDuration="10.00" maxHaltingDuration="10.00" haltingDurationSum="40.00" meanIntervalHaltingDuration="4.50" maxIntervalHaltingDuration="6.00" intervalHaltingDurationSum="18.00" startedHalts="0.00" meanVehicleNumber="1.33" maxVehicleNumber="4" />
   <interval begin="60.00" end="90.00" id="valandro02" sampledSeconds="58.52" nVehEntered="5" nVehLeft="6" nVehSeen="7" meanSpeed="3.01" meanTimeLoss="6.55" meanOccupancy="17.69" maxOccupancy="31.71" meanMaxJamLengthInVehicles="1.03" meanMaxJamLengthInMeters="5.53" maxJamLengthInVehicles="3" maxJamLengthInMeters="18.00" jamLengthInVehiclesSum="31" jamLengthInMetersSum="166.02" meanHaltingDuration="14.00" maxHaltingDuration="21.00" haltingDurationSum="42.00" meanIntervalHaltingDuration="10.67" maxIntervalHaltingDuration="14.00" intervalHaltingDurationSum="32.00" startedHalts="1.00" meanVehicleNumber="2.13" maxVehicleNumber="3" />
   <interval begin="60.00" end="90.00" id="floriano01" sampledSeconds="89.69" nVehEntered="4" nVehLeft="3" nVehSeen="5" meanSpeed="1.47" meanTimeLoss="16.04" meanOccupancy="31.57" maxOccupancy="42.75" meanMaxJamLengthInVehicles="2.13" meanMaxJamLengthInMeters="11.59" maxJamLengthInVehicles="4" maxJamLengthInMeters="24.50" jamLengthInVehiclesSum="64" jamLengthInMetersSum="347.80" meanHaltingDuration="17.25" maxHaltingDuration="25.00" haltingDurationSum="69.00" meanIntervalHaltingDuration="16.75" maxIntervalHaltingDuration="23.00" intervalHaltingDurationSum="67.00" startedHalts="3.00" meanVehicleNumber="3.10" maxVehicleNumber="4" />
   <interval begin="60.00" end="90.00" id="floriano02" sampledSeconds="0.00" nVehEntered="0" nVehLeft="0" nVehSeen="0" meanSpeed="-1.00" meanTimeLoss="-1.00" meanOccupancy="0.00" maxOccupancy="0.00" meanMaxJamLengthInVehicles="0.00" meanMaxJamLengthInMeters="0.00" maxJamLengthInVehicles="0" maxJamLengthInMeters="0.00" jamLengthInVehiclesSum="0" jamLengthInMetersSum="0.00" meanHaltingDuration="0.00" maxHaltingDuration="0.00" haltingDurationSum="0.00" meanIntervalHaltingDuration="0.00" maxIntervalHaltingDuration="0.00" intervalHaltingDurationSum="0.00" startedHalts="0.00" meanVehicleNumber="0.00" maxVehicleNumber="0" />
   <interval begin="60.00" end="90.00" id="floriano03" sampledSeconds="8.50" nVehEntered="0" nVehLeft="2" nVehSeen="2" meanSpeed="1.54" meanTimeLoss="3.77" meanOccupancy="2.02" maxOccupancy="12.29" meanMaxJamLengthInVehicles="0.13" meanMaxJamLengthInMeters="0.53" maxJamLengthInVehicles="2" maxJamLengthInMeters="11.50" jamLengthInVehiclesSum="4" jamLengthInMetersSum="15.80" meanHaltingDuration="3.00" maxHaltingDuration="3.00" haltingDurationSum="3.00" meanIntervalHaltingDuration="3.00" maxIntervalHaltingDuration="3.00" intervalHaltingDurationSum="3.00" startedHalts="2.00" meanVehicleNumber="0.33" maxVehicleNumber="2" />
   <interval begin="90.00" end="120.00" id="silva01" sampledSeconds="5.98" nVehEntered="2" nVehLeft="3" nVehSeen="3" meanSpeed="13.05" meanTimeLoss="0.82" meanOccupancy="1.69" maxOccupancy="11.43" meanMaxJamLengthInVehicles="0.00" meanMaxJamLengthInMeters="0.00" maxJamLengthInVehicles="0" maxJamLengthInMeters="0.00" jamLengthInVehiclesSum="0" jamLengthInMetersSum="0.00" meanHaltingDuration="0.00" maxHaltingDuration="0.00" haltingDurationSum="0.00" meanIntervalHaltingDuration="0.00" maxIntervalHaltingDuration="0.00" intervalHaltingDurationSum="0.00" startedHalts="0.00" meanVehicleNumber="0.33" maxVehicleNumber="1" />
   <interval begin="90.00" end="120.00" id="silva02" sampledSeconds="0.00" nVehEntered="0" nVehLeft="2" nVehSeen="-7" meanSpeed="-1.00" meanTimeLoss="-0.00" meanOccupancy="0.00" maxOccupancy="0.00" meanMaxJamLengthInVehicles="0.00" meanMaxJamLengthInMeters="0.00" maxJamLengthInVehicles="0" maxJamLengthInMeters="0.00" jamLengthInVehiclesSum="0" jamLengthInMetersSum="0.00" meanHaltingDuration="0.00" maxHaltingDuration="0.00" haltingDurationSum="0.00" meanIntervalHaltingDuration="0.00" maxIntervalHaltingDuration="0.00" intervalHaltingDurationSum="0.00" startedHalts="0.00" meanVehicleNumber="0.00" maxVehicleNumber="0" />
   <interval begin="90.00" end="120.00" id="silva03" sampledSeconds="3.72" nVehEntered="1" nVehLeft="3" nVehSeen="3" meanSpeed="9.45" meanTimeLoss="0.71" meanOccupancy="1.75" maxOccupancy="20.00" meanMaxJamLengthInVehicles="0.00" meanMaxJamLengthInMeters="0.00" maxJamLengthInVehicles="0" maxJamLengthInMeters="0.00" jamLengthInVehiclesSum="0" jamLengthInMetersSum="0.00" meanHaltingDuration="0.00" maxHaltingDuration="0.00" haltingDurationSum="0.00" meanIntervalHaltingDuration="0.00" maxIntervalHaltingDuration="0.00" intervalHaltingDurationSum="0.00" startedHalts="0.00" meanVehicleNumber="0.17" maxVehicleNumber="2" />
   <interval begin="90.00" end="120.00" id="venancio01" sampledSeconds="37.65" nVehEntered="7" nVehLeft="7" nVehSeen="9" meanSpeed="7.19" meanTimeLoss="2.83" meanOccupancy="11.68" maxOccupancy="25.37" meanMaxJamLengthInVehicles="0.30" meanMaxJamLengthInMeters="1.28" maxJamLengthInVehicles="2" maxJamLengthInMeters="11.50" jamLengthInVehiclesSum="9" jamLengthInMetersSum="38.26" meanHaltingDuration="5.50" maxHaltingDuration="8.00" haltingDurationSum="11.00" meanIntervalHaltingDuration="3.50" maxIntervalHaltingDuration="4.00" intervalHaltingDurationSum="7.00" startedHalts="1.00" meanVehicleNumber="1.47" maxVehicleNumber="3" />
   <interval begin="90.00" end="120.00" id="venancio02" sampledSeconds="22.96" nVehEntered="7" nVehLeft="5" nVehSeen="7" meanSpeed="9.78" meanTimeLoss="1.75" meanOccupancy="8.92" maxOccupancy="32.77" meanMaxJamLengthInVehicles="0.17" meanMaxJamLengthInMeters="0.58" maxJamLengthInVehicles="1" maxJamLengthInMeters="3.47" jamLengthInVehiclesSum="5" jamLengthInMetersSum="17.35" meanHaltingDuration="3.50" maxHaltingDuration="6.00" haltingDurationSum="7.00" meanIntervalHaltingDuration="3.50" maxIntervalHaltingDuration="6.00" intervalHaltingDurationSum="7.00" startedHalts="2.00" meanVehicleNumber="0.93" maxVehicleNumber="3" />
   <interval begin="90.00" end="120.00" id="venancio03" sampledSeconds="20.34" nVehEntered="9" nVehLeft="9" nVehSeen="11" meanSpeed="17.25" meanTimeLoss="0.41" meanOccupancy="6.69" maxOccupancy="22.86" meanMaxJamLengthInVehicles="0.00" meanMaxJamLengthInMeters="0.00" maxJamLengthInVehicles="0" maxJamLengthInMeters="0.00" jamLengthInVehiclesSum="0" jamLengthInMetersSum="0.00" meanHaltingDuration="0.00" maxHaltingDuration="0.00" haltingDurationSum="0.00" meanIntervalHaltingDuration="0.00" maxIntervalHaltingDuration="0.00" intervalHaltingDurationSum="0.00" startedHalts="0.00" meanVehicleNumber="0.97" maxVehicleNumber="3" />
   <interval begin="90.00" end="120.00" id="andradas03" sampledSeconds="57.01" nVehEntered="7" nVehLeft="6" nVehSeen="7" meanSpeed="6.51" meanTimeLoss="5.66" meanOccupancy="13.16" maxOccupancy="21.71" meanMaxJamLengthInVehicles="0.83" meanMaxJamLengthInMeters="4.33" maxJamLengthInVehicles="3" maxJamLengthInMeters="18.00" jamLengthInVehiclesSum="25" jamLengthInMetersSum="129.77" meanHaltingDuration="9.33" maxHaltingDuration="12.00" haltingDurationSum="28.00" meanIntervalHaltingDuration="9.33" maxIntervalHaltingDuration="12.00" intervalHaltingDurationSum="28.00" startedHalts="3.00" meanVehicleNumber="2.07" maxVehicleNumber="3" />